336
Frame 0: Geometry 1, Energy: -69.13694 Hartree
H -6.852037499986984 3.956025699992485 18.93112059996404
H 0.5610993699989341 -3.840418159992705 18.92997495996404
H -1.017455029998067 -1.822207309996539 18.92279036996405
H -6.852037499986984 3.956025699992485 9.579821999981803
H 0.7613374999985537 -3.956025699992485 9.579821999981803
H 3.806687499992769 -3.956025699992485 18.93112059996404
H 5.329362499989877 -3.076908869994155 20.6881779999607
H 0.7613374999985537 1.318675229997495 18.93112059996404
H -0.5726079799989123 -1.427638269997288 9.700745399981573
H -2.284012499995661 1.536601309997081 9.700745399981573
H 5.329362499989877 -1.318675229997495 18.93112059996404
H 3.806687499992769 1.318675229997495 18.93112059996404
H 2.284012499995661 3.956025699992485 18.93112059996404
H -2.284012499995661 -3.956025699992485 3.769879399992839
H 6.852037499986984 -3.956025699992485 9.579821999981803
O 4.638061679991189 -3.476031589993397 18.92636397996405
H -6.852037499986984 3.956025699992485 3.769879399992839
H 0.7613374999985537 -3.956025699992485 3.769879399992839
O 3.496447709993358 -0.6186754399988248 18.92537749996405
H -2.284012499995661 1.318675229997495 3.769879399992839
H -0.7613374999985537 4.173951779992072 9.700745399981573
H 0.7613374999985537 -2.197792049995825 2.012821999996176
H 2.284012499995661 5.714259339989145 5.55417799998945
H 0.7613374999985537 1.318675229997495 3.769879399992839
H -0.1972071599996254 3.926063949992542 3.778209629992823
H 6.852037499986984 -3.956025699992485 3.769879399992839
H 0.7613374999985537 -0.439558409999165 20.6881779999607
O 6.160736679988298 -0.8386811199984068 18.92636397996405
H 2.284012499995661 3.956025699992485 3.769879399992839
H -1.325467839997482 -3.046947119994212 3.788790369992803
H -1.975999689996246 0.03401191999993539 3.788790369992803
H -0.7613374999985537 -3.076908869994155 17.14682199996743
H -5.893492839988805 4.865104269990758 3.788790369992803
H 1.719882159996733 -3.046947119994212 3.788790369992803
H 0.9500670199981952 3.185871909993948 5.433254599989678
H -0.5052199699990403 1.694259969996782 3.788790369992803
H -3.806687499992769 0.439558409999165 5.55417799998945
H 5.45342446998964 -3.305267109993721 3.794124499992793
H -2.284012499995661 -0.439558409999165 20.6881779999607
H -2.224016949995775 3.111547319994089 5.515737449989522
H 0.7613374999985537 4.835142519990815 3.797120599992787
H 5.329362499989877 -1.318675229997495 9.579821999981803
H 8.37471249998409 -3.076908869994155 20.6881779999607
O 2.284012499995661 -2.509878519995232 18.92521833996405
H 3.550569969993255 4.331610429991771 3.788790369992803
Mg -2.284012499995661 -3.956025699992485 0.0
Mg -3.806687499992769 -1.318675229997495 0.0
Al -5.329362499989877 1.318675229997495 0.0
Mg -6.852037499986984 3.956025699992485 0.0
Mg 0.7613374999985537 -3.956025699992485 0.0
Al -0.7613374999985537 -1.318675229997495 0.0
Mg -2.284012499995661 1.318675229997495 0.0
Mg -3.806687499992769 3.956025699992485 0.0
Al 3.806687499992769 -3.956025699992485 0.0
Mg 2.284012499995661 -1.318675229997495 0.0
Mg 0.7613374999985537 1.318675229997495 0.0
Mg -0.7613374999985537 3.956025699992485 0.0
Mg 6.852037499986984 -3.956025699992485 0.0
Mg 5.329362499989877 -1.318675229997495 0.0
Mg 3.806687499992769 1.318675229997495 0.0
Al 2.284012499995661 3.956025699992485 0.0
Mg -0.7613374999985537 -3.076908869994155 7.566999999985626
Mg -2.284012499995661 -0.439558409999165 7.566999999985626
Al -3.806687499992769 2.197792049995825 7.566999999985626
Mg -5.329362499989877 4.835142519990815 7.566999999985626
Mg 2.284012499995661 -3.076908869994155 7.566999999985626
Al 0.7613374999985537 -0.439558409999165 7.566999999985626
Mg -0.7613374999985537 2.197792049995825 7.566999999985626
Mg -2.284012499995661 4.835142519990815 7.566999999985626
Mg 5.329362499989877 -3.076908869994155 7.566999999985626
Mg 3.806687499992769 -0.439558409999165 7.566999999985626
Mg 2.284012499995661 2.197792049995825 7.566999999985626
Al 0.7613374999985537 4.835142519990815 7.566999999985626
Al 8.37471249998409 -3.076908869994155 7.566999999985626
Mg 6.852037499986984 -0.439558409999165 7.566999999985626
Mg 5.329362499989877 2.197792049995825 7.566999999985626
Mg 3.806687499992769 4.835142519990815 7.566999999985626
Al -2.284012499995661 -2.197792049995825 15.13399999997125
Mg -3.806687499992769 0.439558409999165 15.13399999997125
Mg -5.329362499989877 3.076908869994155 15.13399999997125
Mg -6.852037499986984 5.714259339989145 15.13399999997125
Mg 0.7613374999985537 -2.197792049995825 15.13399999997125
Mg -0.7613374999985537 0.439558409999165 15.13399999997125
Mg -2.284012499995661 3.076908869994155 15.13399999997125
Al -3.806687499992769 5.714259339989145 15.13399999997125
Mg 3.806687499992769 -2.197792049995825 15.13399999997125
Mg 2.284012499995661 0.439558409999165 15.13399999997125
Al 0.7613374999985537 3.076908869994155 15.13399999997125
Mg -0.7613374999985537 5.714259339989145 15.13399999997125
Mg 6.852037499986984 -2.197792049995825 15.13399999997125
Al 5.329362499989877 0.439558409999165 15.13399999997125
Mg 3.806687499992769 3.076908869994155 15.13399999997125
Mg 2.284012499995661 5.714259339989145 15.13399999997125
O -2.284012499995661 -3.956025699992485 14.15838668997311
O -3.806687499992769 -1.318675229997495 14.15838668997311
O -5.329362499989877 1.318675229997495 14.15838668997311
O -6.852037499986984 3.956025699992485 14.15838668997311
O 0.7613374999985537 -3.956025699992485 14.15838668997311
O -0.7613374999985537 -1.318675229997495 14.15838668997311
O -2.284012499995661 1.318675229997495 14.15838668997311
O -3.806687499992769 3.956025699992485 14.15838668997311
O 3.806687499992769 -3.956025699992485 14.15838668997311
O 2.284012499995661 -1.318675229997495 14.15838668997311
O 0.7613374999985537 1.318675229997495 14.15838668997311
O -0.7613374999985537 3.956025699992485 14.15838668997311
O 6.852037499986984 -3.956025699992485 14.15838668997311
O 5.329362499989877 -1.318675229997495 14.15838668997311
O 3.806687499992769 1.318675229997495 14.15838668997311
O 2.284012499995661 3.956025699992485 14.15838668997311
O -2.284012499995661 -3.956025699992485 8.542613309983771
O -3.806687499992769 -1.318675229997495 8.542613309983771
O -5.329362499989877 1.318675229997495 8.542613309983771
O -6.852037499986984 3.956025699992485 8.542613309983771
O 0.7613374999985537 -3.956025699992485 8.542613309983771
O -0.5726079799989123 -1.427638269997288 8.663536709983543
O -2.284012499995661 1.536601309997081 8.663536709983543
O -3.806687499992769 3.956025699992485 8.542613309983771
O 3.806687499992769 -3.956025699992485 8.542613309983771
O 2.284012499995661 -1.318675229997495 8.542613309983771
O 0.7613374999985537 1.318675229997495 8.542613309983771
O -0.7613374999985537 4.173951779992072 8.663536709983543
O 6.852037499986984 -3.956025699992485 8.542613309983771
O 5.329362499989877 -1.318675229997495 8.542613309983771
O 3.806687499992769 1.318675229997495 8.542613309983771
O 2.284012499995661 3.956025699992485 8.542613309983771
O -0.7613374999985537 -3.076908869994155 21.72538668995873
O -2.284012499995661 -0.439558409999165 21.72538668995873
O -3.806687499992769 2.197792049995825 21.72538668995873
O -5.329362499989877 4.835142519990815 21.72538668995873
O 2.284012499995661 -3.076908869994155 21.72538668995873
O 0.7613374999985537 -0.439558409999165 21.72538668995873
O -0.7613374999985537 2.197792049995825 21.72538668995873
O -2.284012499995661 4.835142519990815 21.72538668995873
O 5.329362499989877 -3.076908869994155 21.72538668995873
O 3.806687499992769 -0.439558409999165 21.72538668995873
O 2.284012499995661 2.197792049995825 21.72538668995873
O 0.7613374999985537 4.835142519990815 21.72538668995873
O 8.37471249998409 -3.076908869994155 21.72538668995873
O 6.852037499986984 -0.439558409999165 21.72538668995873
O 5.329362499989877 2.197792049995825 21.72538668995873
O 3.806687499992769 4.835142519990815 21.72538668995873
O -0.7613374999985537 -3.076908869994155 16.1096133099694
O -2.284012499995661 -0.439558409999165 16.1096133099694
O -3.806687499992769 2.197792049995825 16.1096133099694
O -5.329362499989877 4.835142519990815 16.1096133099694
O 2.284012499995661 -3.076908869994155 16.1096133099694
O 0.7613374999985537 -0.439558409999165 16.1096133099694
O -0.7613374999985537 2.197792049995825 16.1096133099694
O -2.284012499995661 4.835142519990815 16.1096133099694
O 5.329362499989877 -3.076908869994155 16.1096133099694
O 3.806687499992769 -0.439558409999165 16.1096133099694
O 2.284012499995661 2.197792049995825 16.1096133099694
O 0.7613374999985537 4.835142519990815 16.1096133099694
O 8.37471249998409 -3.076908869994155 16.1096133099694
O 6.852037499986984 -0.439558409999165 16.1096133099694
O 5.329362499989877 2.197792049995825 16.1096133099694
O 3.806687499992769 4.835142519990815 16.1096133099694
O -2.284012499995661 -2.197792049995825 6.591386689987479
O -3.806687499992769 0.439558409999165 6.591386689987479
O -5.329362499989877 3.076908869994155 6.591386689987479
O -6.852037499986984 5.714259339989145 6.591386689987479
O 0.7613374999985537 -2.197792049995825 6.591386689987479
O -0.7613374999985537 0.439558409999165 6.591386689987479
O -2.224016949995775 3.111547319994089 6.552946139987553
O -3.806687499992769 5.714259339989145 6.591386689987479
O 3.806687499992769 -2.197792049995825 6.591386689987479
O 2.284012499995661 0.439558409999165 6.591386689987479
O 0.9500670199981952 3.185871909993948 6.470463289987708
O -0.7613374999985537 5.714259339989145 6.591386689987479
O 6.852037499986984 -2.197792049995825 6.591386689987479
O 5.329362499989877 0.439558409999165 6.591386689987479
O 3.806687499992769 3.076908869994155 6.591386689987479
O 2.284012499995661 5.714259339989145 6.591386689987479
O -2.284012499995661 -2.197792049995825 0.9756133099981467
O -3.806687499992769 0.439558409999165 0.9756133099981467
O -5.329362499989877 3.076908869994155 0.9756133099981467
O -6.852037499986984 5.714259339989145 0.9756133099981467
O 0.7613374999985537 -2.197792049995825 0.9756133099981467
O -0.7613374999985537 0.439558409999165 0.9756133099981467
O -2.284012499995661 3.076908869994155 0.9756133099981467
O -3.806687499992769 5.714259339989145 0.9756133099981467
O 3.806687499992769 -2.197792049995825 0.9756133099981467
O 2.284012499995661 0.439558409999165 0.9756133099981467
O 0.7613374999985537 3.076908869994155 0.9756133099981467
O -0.7613374999985537 5.714259339989145 0.9756133099981467
O 6.852037499986984 -2.197792049995825 0.9756133099981467
O 5.329362499989877 0.439558409999165 0.9756133099981467
O 3.806687499992769 3.076908869994155 0.9756133099981467
O 2.284012499995661 5.714259339989145 0.9756133099981467
H -2.284012499995661 -2.197792049995825 2.012821999996176
O -1.848829219996488 -1.34221320999745 18.91803374996406
O 2.594252289995072 0.2604413899995053 3.791377499992798
H -3.806687499992769 0.439558409999165 2.012821999996176
H 0.7613374999985537 -3.956025699992485 13.12117799997507
O -0.4510977099991431 -1.139558209997835 11.34262249997845
H -0.7613374999985537 2.197792049995825 20.6881779999607
H -2.284012499995661 1.318675229997495 13.12117799997507
H -2.284012499995661 4.835142519990815 20.6881779999607
O -0.1972071599996254 4.886052159990718 3.782966249992814
O 6.393785689987854 -3.112531289994088 3.780946179992818
O -0.4510977099991431 4.135142719992145 11.34262249997845
H 4.000966949992399 -2.758022789994761 18.91318564996407
O -2.807373869994668 0.5140060299990236 3.784033749992812
H -0.7613374999985537 -3.076908869994155 20.6881779999607
H 2.284012499995661 -1.318675229997495 13.12117799997507
H -6.719461559987236 5.331796289989871 18.91043836996408
H 0.7613374999985537 3.076908869994155 2.012821999996176
H -6.852037499986984 5.714259339989145 11.36412059997841
O -6.852037499986984 4.916013909990662 3.77463601999283
O -2.284012499995661 -2.996037479994309 3.77463601999283
O 0.7613374999985537 0.9604411799981756 11.34262249997845
H 3.806687499992769 1.318675229997495 13.12117799997507
H 8.37471249998409 -3.076908869994155 17.14682199996743
O 5.329362499989877 -1.885705579996418 11.34278165997845
H -2.471808689995304 0.1244154399997636 11.34504000997845
H 0.7613374999985537 1.318675229997495 13.12117799997507
O 0.7613374999985537 6.026345809988552 11.34278165997845
O 8.37471249998409 -1.885705579996418 11.34278165997845
H 4.389001269991661 -2.078441399996052 11.35595998997843
O 5.329362499989877 3.388995349993562 11.34278165997845
H 2.284012499995661 3.956025699992485 9.579821999981803
H -0.7613374999985537 -1.318675229997495 13.12117799997507
H 6.852037499986984 -0.439558409999165 20.6881779999607
C -2.284012499995661 3.076908869994155 18.91068969996407
H -3.806687499992769 5.714259339989145 2.012821999996176
O 0.7613374999985537 -2.996037479994309 3.77463601999283
O 1.973772709996251 -1.139558209997835 11.34262249997845
H -2.284012499995661 -3.956025699992485 13.12117799997507
H 2.284012499995661 3.956025699992485 13.12117799997507
C 0.7613374999985537 4.835142519990815 11.34368969997845
O -6.12256083998837 4.580065399991299 18.92493652996405
H -3.618891309993125 2.761765899994754 11.34504000997845
O 1.973772709996251 4.135142719992145 11.34262249997845
H -2.284012499995661 4.835142519990815 17.14682199996743
H -2.471808689995304 5.399116359989743 11.34504000997845
C 0.7613374999985537 -0.439558409999165 11.34368969997845
H 3.806687499992769 3.076908869994155 2.012821999996176
H -0.7613374999985537 2.197792049995825 17.14682199996743
O -2.775075189994729 1.035160059998034 11.35821833997842
H 3.806687499992769 -2.197792049995825 2.012821999996176
O -6.020663319988563 6.194253449988232 11.35936397997842
H -2.284012499995661 -0.439558409999165 17.14682199996743
H -3.806687499992769 -1.318675229997495 13.12117799997507
H -2.284012499995661 -3.956025699992485 9.579821999981803
O -2.775075189994729 6.309860979988013 11.35821833997842
H -0.7613374999985537 5.714259339989145 5.55417799998945
H 3.806687499992769 1.318675229997495 9.579821999981803
H -0.7613374999985537 3.956025699992485 13.12117799997507
H -3.806687499992769 3.956025699992485 13.12117799997507
C 2.284012499995661 -1.318675229997495 18.92431029996405
H 8.37471249998409 -2.845693799994594 11.33802503997846
H 2.284012499995661 5.714259339989145 2.012821999996176
O -2.594252289995072 3.256025899993815 3.775622499992828
O 0.3261542199993804 2.17425407999587 3.784033749992812
H 6.59591996998747 -1.694259969996782 18.91220962996407
H 6.852037499986984 -2.197792049995825 2.012821999996176
O -0.2702748099994866 -3.360424049993617 18.92521833996405
H 0.7613374999985537 4.835142519990815 17.14682199996743
O -4.838299809990809 3.360424049993617 3.775781659992827
H -0.7613374999985537 5.714259339989145 2.012821999996176
H 2.284012499995661 0.439558409999165 2.012821999996176
C -3.806687499992769 3.956025699992485 3.776689699992826
H 5.129124369990257 0.5551659499989454 11.36297495997841
H -5.329362499989877 1.318675229997495 13.12117799997507
H -3.806687499992769 -1.318675229997495 9.579821999981803
O -3.806687499992769 5.147228989990222 3.775781659992827
O 2.719195779994835 4.81160453999086 3.784033749992812
H -5.58548002998939 5.338674599989858 11.34520962997845
H 6.852037499986984 -3.956025699992485 13.12117799997507
H -3.806687499992769 2.197792049995825 17.14682199996743
H 5.329362499989877 0.439558409999165 2.012821999996176
H -0.7613374999985537 0.439558409999165 2.012821999996176
O 3.806687499992769 -1.839557999996505 3.791377499992798
H 6.852037499986984 -2.197792049995825 5.55417799998945
H 5.329362499989877 2.429007129995386 11.33802503997846
O -3.315624809993702 3.672510519993023 11.35821833997842
H 4.389001269991661 3.196259519993928 11.35595998997843
C 3.806687499992769 -0.439558409999165 3.790310299992799
H -6.852037499986984 3.956025699992485 13.12117799997507
H -5.329362499989877 1.318675229997495 9.579821999981803
O 1.071577289997965 -0.6186754399988248 18.92537749996405
H -3.606449369993149 0.5551659499989454 11.36297495997841
O 4.297750189991836 1.035160059998034 11.35821833997842
H 5.329362499989877 -1.318675229997495 13.12117799997507
H 3.806687499992769 -3.956025699992485 13.12117799997507
H 6.852037499986984 -0.439558409999165 17.14682199996743
H -5.329362499989877 3.076908869994155 5.55417799998945
O -3.496447709993358 2.376909079995484 18.90962249996408
H 3.806687499992769 -0.439558409999165 20.6881779999607
H 5.329362499989877 -2.845693799994594 11.33802503997846
O 5.019122709990466 0.2604413899995053 3.791377499992798
H 0.3668199199993032 -2.64241524999498 18.91204000996407
H -3.806687499992769 3.956025699992485 9.579821999981803
H 5.329362499989877 -3.076908869994155 17.14682199996743
H -2.284012499995661 3.076908869994155 2.012821999996176
H -5.329362499989877 3.076908869994155 2.012821999996176
O 1.760651129996655 4.760694899990956 18.91696624996407
H -3.806687499992769 2.197792049995825 20.6881779999607
H -5.329362499989877 4.835142519990815 17.14682199996743
H 5.329362499989877 2.197792049995825 20.6881779999607
H -3.806687499992769 5.714259339989145 5.55417799998945
H 5.329362499989877 2.197792049995825 17.14682199996743
H -6.852037499986984 5.714259339989145 5.55417799998945
H 3.612408049993138 2.516678139995219 18.91318564996407
H 2.284012499995661 2.197792049995825 20.6881779999607
H -2.484250629995281 3.192516409993936 11.36297495997841
H -2.284012499995661 -2.197792049995825 18.90387939996409
H 3.806687499992769 -3.956025699992485 9.579821999981803
O -2.284012499995661 4.476908469991495 18.90962249996408
H 3.806687499992769 -0.439558409999165 17.14682199996743
H 3.994483689992412 0.1244154399997636 11.34504000997845
H -6.852037499986984 5.714259339989145 2.012821999996176
H 5.329362499989877 0.439558409999165 5.55417799998945
H -5.329362499989877 4.835142519990815 20.6881779999607
H 2.284012499995661 -3.076908869994155 17.14682199996743
H 3.806687499992769 4.835142519990815 20.6881779999607
H 3.806687499992769 -2.197792049995825 5.55417799998945
H 3.806687499992769 4.835142519990815 17.14682199996743
H 0.7613374999985537 -2.197792049995825 5.55417799998945
H 2.592025309995076 5.240689009990044 18.91220962996407
H 0.7613374999985537 4.835142519990815 20.6881779999607
H -3.606449369993149 5.829866879988925 11.36297495997841
H 2.284012499995661 -1.318675229997495 9.579821999981803
O -1.071577289997965 2.376909079995484 18.90962249996408
H 0.5670580499989228 2.516678139995219 18.91318564996407
H 2.284012499995661 2.197792049995825 17.14682199996743
H 7.434351269985878 -2.078441399996052 11.35595998997843
O 1.398432229997344 2.036684029996131 18.91794226996407
H 3.806687499992769 3.076908869994155 5.55417799998945
H 2.284012499995661 -3.076908869994155 20.6881779999607
H 0.7613374999985537 -0.439558409999165 17.14682199996743
O 4.443782229991559 2.036684029996131 18.91794226996407
H 2.284012499995661 0.439558409999165 5.55417799998945
H -2.284012499995661 -2.197792049995825 5.55417799998945
H -0.7613374999985537 0.439558409999165 5.55417799998945
H 0.7613374999985537 1.318675229997495 9.579821999981803
VEC1 12.1814 0.0 0.0
VEC2 -6.0907 10.54940185 0.0
VEC3 0.0 0.0 22.701
